-- Generated [
-- Format      : ECLIPSE keywords (grid geometry and properties) (ASCII)
-- Exported by : Petrel 2019.2 Schlumberger
-- User name   : shishaevgy
-- Date        : Friday, July 16 2021 10:00:09
-- Project     : channels_with_stats.pet
-- Grid        : 3D grid
-- Generated ]

PINCH                                   
  /

NOECHO                                  

MAPUNITS                                
  METRES /

MAPAXES                                 
  0 800 0 1800 1000 1800 /

GRIDUNIT                                
  METRES /

SPECGRID                                
  16 13 10 1 F /

COORDSYS                                
  1 10 /

COORD                                   
  0 -55.14742279 2464.84082 0 -55.14742279 2475.387207 150 -50.27839279 2453.96875 150 -50.27839279 2474.427734 300 -54.30606079
  2452.430176 300 -54.30606079 2462.57959 450 -58.29336929 2453.058105 450 -58.29336929 2463.003906 600 -62.05606842 2453.862793 600
  -62.05606842 2463.621826 750 -65.63043594 2454.758789 750 -65.63043594 2464.356445 900 -69.05120087 2455.253906 900 -69.05120087
  2464.742432 1050 -72.30553627 2454.83252 1050 -72.30553627 2464.289063 1200 -75.36647987 2453.383301 1200 -75.36647987 2462.90918
  1350 -78.21019173 2451.305176 1350 -78.21019173 2461.025146 1500 -80.8271656 2449.308594 1500 -80.8271656 2459.358643 1650
  -83.21869469 2448.01123 1650 -83.21869469 2458.518066 1800 -85.38811111 2447.665527 1800 -85.38811111 2458.739258 1950
  -87.34168053 2448.044922 1950 -87.34168053 2459.770508 2100 -89.08432579 2448.594238 2100 -89.08432579 2461.030518 2250
  -90.62905693 2448.949707 2250 -90.62905693 2462.122803 2400 -92.00203896 2449.117676 2400 -92.00203896 2463.036865
  -7.105427358E-15 93.80688477 2462.897461 -7.105427358E-15 93.80688477 2474.020996 150 98.25125885 2450.039307 150 98.25125885
  2473.06543 300 94.74708939 2448.486816 300 94.74708939 2459.208496 450 91.13316345 2447.359863 450 91.13316345 2457.885986 600
  87.54353333 2446.975098 600 87.54353333 2457.318604 750 84.07001114 2447.471924 750 84.07001114 2457.651123 900 80.75175285
  2448.239014 900 80.75175285 2458.293457 1050 77.60368156 2447.994629 1050 77.60368156 2458.001709 1200 74.65416336 2446.514404
  1200 74.65416336 2456.60376 1350 71.91657448 2444.912842 1350 71.91657448 2455.234131 1500 69.40442467 2443.998535 1500
  69.40442467 2454.678223 1650 67.1108284 2443.956055 1650 67.1108284 2455.07373 1800 65.02229118 2444.680176 1800 65.02229118
  2456.29248 1950 63.1342392 2445.90332 1950 63.1342392 2458.078125 2100 61.43779564 2446.796387 2100 61.43779564 2459.584961 2250
  59.91887951 2447.164795 2250 59.91887951 2460.588379 2400 58.55298042 2447.181641 2400 58.55298042 2461.252441 -1.421085472E-14
  241.8143959 2460.865234 -1.421085472E-14 241.8143959 2472.57251 150 245.9440193 2447.889648 150 245.9440193 2471.479736 300
  242.8471375 2444.267822 300 242.8471375 2455.561768 450 239.6618347 2441.970215 450 239.6618347 2453.072021 600 236.425293
  2440.493164 600 236.425293 2451.414307 750 233.21735 2440.2146 750 233.21735 2450.968994 900 230.1132145 2440.804688 900
  230.1132145 2451.425049 1050 227.1591759 2440.645264 1050 227.1591759 2451.208984 1200 224.3807869 2439.338867 1200 224.3807869
  2450.00293 1350 221.8053513 2438.623047 1350 221.8053513 2449.559814 1500 219.4398327 2439.049072 1500 219.4398327 2450.370117
  1650 217.2758713 2440.385986 1650 217.2758713 2452.12085 1800 215.2951813 2442.023926 1800 215.2951813 2454.18042 1950 213.4925385
  2443.576904 1950 213.4925385 2456.200684 2100 211.865037 2444.621826 2100 211.865037 2457.755127 2250 210.3917742 2445.202881 2250
  210.3917742 2458.866455 2400 209.0466862 2445.43042 2400 209.0466862 2459.643555 -7.105427358E-15 389.1668663 2459.189697
  -7.105427358E-15 389.1668663 2471.449707 150 392.9904823 2446.09375 150 392.9904823 2470.228516 300 390.2768974 2440.71167 300
  390.2768974 2452.550537 450 387.5105362 2437.160156 450 387.5105362 2448.813232 600 384.6865501 2434.129639 600 384.6865501
  2445.611328 750 381.8451347 2432.174561 750 381.8451347 2443.499268 900 379.0560989 2431.418457 900 379.0560989 2442.618408 1050
  376.3717194 2430.758057 1050 376.3717194 2441.906982 1200 373.83605 2430.040283 1200 373.83605 2441.305908 1350 371.4711418
  2430.619141 1350 371.4711418 2442.209961 1500 369.2901344 2432.662598 1500 369.2901344 2444.664795 1650 367.2829571 2435.722656
  1650 367.2829571 2448.083984 1800 365.4349451 2438.718018 1800 365.4349451 2451.396729 1950 363.7391844 2440.911865 1950
  363.7391844 2453.946289 2100 362.1943388 2442.459473 2100 362.1943388 2455.895752 2250 360.7824326 2443.451416 2250 360.7824326
  2457.320068 2400 359.4721031 2443.973633 2400 359.4721031 2458.302002 0 536.0375595 2458.064941 0 536.0375595 2470.833984 150
  539.5359802 2444.765869 150 539.5359802 2469.409668 300 537.209568 2438.421143 300 537.209568 2450.774902 450 534.8526268
  2433.592773 450 534.8526268 2445.773682 600 532.4536476 2428.656494 600 532.4536476 2440.685303 750 530.0287666 2424.10498 750
  530.0287666 2436.001953 900 527.6191063 2420.726807 900 527.6191063 2432.525635 1050 525.2753315 2418.907715 1050 525.2753315
  2430.683838 1200 523.0380173 2419.111084 1200 523.0380173 2431.03125 1350 520.9298496 2421.444824 1350 520.9298496 2433.730957
  1500 518.9633751 2425.292725 1500 518.9633751 2438.002197 1650 517.143322 2430.013916 1650 517.143322 2442.991943 1800 515.4497719
  2434.507324 1800 515.4497719 2447.681641 1950 513.8807402 2438.019287 1950 513.8807402 2451.431396 2100 512.4279594 2440.510498
  2100 512.4279594 2454.213623 2250 511.0820818 2442.10376 2250 511.0820818 2456.145752 2400 509.818346 2442.977295 2400 509.818346
  2457.39917 0 682.5494041 2457.171143 0 682.5494041 2470.398682 150 685.70158 2443.655273 150 685.70158 2468.766602 300 683.7723351
  2437.317139 300 683.7723351 2450.152832 450 681.8266258 2431.54541 450 681.8266258 2444.222168 600 679.8564091 2424.828369 600
  679.8564091 2437.372803 750 677.8668518 2417.70166 750 677.8668518 2430.133301 900 675.8798084 2411.753418 900 675.8798084
  2424.095703 1050 673.9239464 2408.858887 1050 673.9239464 2421.186035 1200 672.0281067 2409.919434 1200 672.0281067 2422.40625
  1350 670.2139339 2413.883545 1350 670.2139339 2426.761719 1500 668.4905586 2419.299805 1500 668.4905586 2432.590088 1650
  666.8711891 2425.400391 1650 666.8711891 2438.875732 1800 665.347929 2431.229004 1800 665.347929 2444.815186 1950 663.9151735
  2435.997803 1950 663.9151735 2449.724609 2100 662.5682077 2439.387939 2100 662.5682077 2453.311035 2250 661.2984915 2441.50708
  2250 661.2984915 2455.692871 2400 660.0856123 2442.649658 2400 660.0856123 2457.151855 0 828.804533 2455.734863 0 828.804533
  2469.387695 150 831.5927372 2442.38916 150 831.5927372 2467.9375 300 830.0753555 2436.115723 300 830.0753555 2449.39917 450
  828.5512257 2430.260742 450 828.5512257 2443.393311 600 827.0173512 2422.662109 600 827.0173512 2435.664307 750 825.4725876
  2414.189453 750 825.4725876 2427.070557 900 823.9216614 2407.126221 900 823.9216614 2419.905762 1050 822.3783817 2404.201904 1050
  822.3783817 2416.941162 1200 820.8494186 2406.263672 1200 820.8494186 2419.105469 1350 819.3489704 2411.072754 1350 819.3489704
  2424.228516 1500 817.8897724 2416.978516 1500 817.8897724 2430.485107 1650 816.4847603 2423.61084 1650 816.4847603 2437.291992
  1800 815.1394854 2430.161377 1800 815.1394854 2443.948486 1950 813.8533182 2435.634521 1950 813.8533182 2449.533691 2100
  812.6168652 2439.466064 2100 812.6168652 2453.524414 2250 811.4267063 2441.777344 2250 811.4267063 2456.060303 2400 810.2715731
  2443.092041 2400 810.2715731 2457.652832 0 974.8986359 2453.749268 0 974.8986359 2467.810059 150 977.3046322 2441.077637 150
  977.3046322 2467.03418 300 976.2162552 2435.04541 300 976.2162552 2448.747803 450 975.1249256 2429.646973 450 975.1249256
  2443.199707 600 974.0315552 2422.535645 600 974.0315552 2435.937744 750 972.9333515 2414.596924 750 972.9333515 2427.843994 900
  971.8227234 2408.253418 900 971.8227234 2421.360596 1050 970.6904564 2406.148682 1050 970.6904564 2419.135254 1200 969.5351295
  2408.821289 1200 969.5351295 2421.759521 1350 968.3620853 2413.12207 1350 968.3620853 2426.20752 1500 967.1781025 2418.418213 1500
  967.1781025 2431.768311 1650 965.9981327 2424.771484 1650 965.9981327 2438.354004 1800 964.8348675 2431.279785 1800 964.8348675
  2445.049805 1950 963.6938286 2436.700928 1950 963.6938286 2450.62793 2100 962.5722752 2440.429443 2100 962.5722752 2454.535889
  2250 961.4631472 2442.676025 2250 961.4631472 2457.006592 2400 960.371439 2444.125488 2400 960.371439 2458.718994 0 1120.92487
  2452.365723 0 1120.92487 2466.802246 150 1122.926455 2440.294922 150 1122.926455 2466.629883 300 1122.277748 2434.883057 300
  1122.277748 2448.98291 450 1121.629408 2430.485352 450 1121.629408 2444.439209 600 1120.979704 2424.903564 600 1120.979704
  2438.678223 750 1120.324594 2418.715576 750 1120.324594 2432.281982 900 1119.640982 2413.876953 900 1119.640982 2427.227295 1050
  1118.915857 2412.397461 1050 1118.915857 2425.505615 1200 1118.130985 2414.346924 1200 1118.130985 2427.243164 1350 1117.281986
  2417.804932 1350 1117.281986 2430.717773 1500 1116.377302 2422.265625 1500 1116.377302 2435.395508 1650 1115.422359 2427.79248
  1650 1115.422359 2441.224609 1800 1114.44294 2433.487305 1800 1114.44294 2447.203613 1950 1113.447426 2438.199463 1950 1113.447426
  2452.131592 2100 1112.430977 2441.512939 2100 1112.430977 2455.639648 2250 1111.405158 2443.664795 2250 1111.405158 2458.019043
  2400 1110.38154 2445.290527 2400 1110.38154 2459.898438 0 1266.966917 2452.811035 0 1266.966917 2467.563232 150 1268.544697
  2440.626953 150 1268.544697 2467.30542 300 1268.342693 2436.366699 300 1268.342693 2450.843262 450 1268.140457 2433.124512 450
  1268.140457 2447.460205 600 1267.938322 2429.231934 600 1267.938322 2443.352539 750 1267.718809 2424.894043 750 1267.718809
  2438.743652 900 1267.454489 2421.470215 900 1267.454489 2435.027588 1050 1267.115704 2420.270996 1050 1267.115704 2433.503662 1200
  1266.681993 2421.397461 1200 1266.681993 2434.354736 1350 1266.146816 2423.901123 1350 1266.146816 2436.80249 1500 1265.504885
  2427.353027 1500 1265.504885 2440.439453 1650 1264.77037 2431.609619 1650 1264.77037 2445.017578 1800 1263.968317 2435.955811 1800
  1263.968317 2449.677246 1950 1263.110637 2439.610352 1950 1263.110637 2453.562744 2100 1262.206485 2442.370361 2100 1262.206485
  2456.520752 2250 1261.263456 2444.483398 2250 1261.263456 2458.854492 2400 1260.30885 2446.280029 2400 1260.30885 2460.890381 0
  1413.109182 2454.69873 0 1413.109182 2469.735596 150 1414.24662 2442.179199 150 1414.24662 2469.17334 300 1414.486869 2439.270996
  300 1414.486869 2454.091064 450 1414.736546 2437.097412 450 1414.736546 2451.780762 600 1414.979269 2434.590332 600 1414.979269
  2449.036133 750 1415.186733 2431.739746 750 1415.186733 2445.873291 900 1415.315075 2429.448975 900 1415.315075 2443.250732 1050
  1415.335313 2428.512695 1050 1415.335313 2441.971436 1200 1415.219439 2429.047852 1200 1415.219439 2442.237549 1350 1414.962935
  2430.670654 1350 1414.962935 2443.776611 1500 1414.565278 2432.980225 1500 1414.565278 2446.218506 1650 1414.041092 2435.821533
  1650 1414.041092 2449.322998 1800 1413.412058 2438.764404 1800 1413.412058 2452.529785 1950 1412.693974 2441.354736 1950
  1412.693974 2455.334229 2100 1411.895922 2443.519287 2100 1411.895922 2457.695801 2250 1411.043482 2445.428223 2250 1411.043482
  2459.811768 2400 1410.161054 2447.158936 2400 1410.161054 2461.761475 0 1559.445752 2457.122803 0 1559.445752 2472.434814 150
  1560.123962 2444.640137 150 1560.123962 2471.933594 300 1560.809536 2443.009766 300 1560.809536 2458.13916 450 1561.50671
  2441.740723 450 1561.50671 2456.734619 600 1562.180164 2440.27002 600 1562.180164 2455.032227 750 1562.781518 2438.425049 750
  1562.781518 2452.87793 900 1563.258576 2436.945068 900 1563.258576 2451.065186 1050 1563.589686 2436.221436 1050 1563.589686
  2450.016602 1200 1563.750649 2436.269775 1200 1563.750649 2449.810791 1350 1563.741712 2437.081055 1350 1563.741712 2450.509766
  1500 1563.563704 2438.394287 1500 1563.563704 2451.875244 1650 1563.231431 2440.076416 1650 1563.231431 2453.722656 1800
  1562.768026 2441.863037 1800 1562.768026 2455.701416 1950 1562.190415 2443.55127 1950 1562.190415 2457.572021 2100 1561.508113
  2445.102783 2100 1561.508113 2459.303955 2250 1560.746677 2446.577881 2250 1560.746677 2460.966064 2400 1559.93414 2448.004883
  2400 1559.93414 2462.587402 0 1706.079291 2459.917969 0 1706.079291 2475.505127 150 1706.278224 2447.59668 150 1706.278224
  2475.184082 300 1707.413864 2447.155273 300 1707.413864 2462.58374 450 1708.555189 2446.633057 450 1708.555189 2461.928711 600
  1709.617266 2445.718994 600 1709.617266 2460.794678 750 1710.538992 2444.541748 750 1710.538992 2459.333496 900 1711.30269
  2443.627441 900 1711.30269 2458.110596 1050 1711.88976 2442.937012 1050 1711.88976 2457.111816 1200 1712.285067 2442.385254 1200
  1712.285067 2456.295898 1350 1712.48693 2442.4729 1350 1712.48693 2456.21875 1500 1712.499891 2443.189453 1500 1712.499891
  2456.899902 1650 1712.342367 2444.102783 1650 1712.342367 2457.886719 1800 1712.035959 2444.994141 1800 1712.035959 2458.90625
  1950 1711.594838 2445.876221 1950 1711.594838 2459.936035 2100 1711.034296 2446.798096 2100 1711.034296 2461.016113 2250
  1710.370794 2447.787109 2250 1710.370794 2462.170166 2400 1709.633401 2448.825928 2400 1709.633401 2463.378906 0 1853.176552
  2462.613525 0 1853.176552 2478.475098 150 1852.832888 2451.640625 150 1852.832888 2478.143066 300 1854.461895 2451.212891 300
  1854.461895 2466.959473 450 1856.005033 2451.341309 450 1856.005033 2466.916992 600 1857.346769 2451.161621 600 1857.346769
  2466.53125 750 1858.492552 2450.748535 750 1858.492552 2465.868896 900 1859.457384 2450.185547 900 1859.457384 2465.024658 1050
  1860.238923 2449.461914 1050 1860.238923 2464.013428 1200 1860.822206 2448.682129 1200 1860.822206 2462.969727 1350 1861.200456
  2448.14209 1350 1861.200456 2462.225342 1500 1861.379449 2447.964844 1500 1861.379449 2461.925781 1650 1861.37901 2447.98877 1650
  1861.37901 2461.922607 1800 1861.217425 2448.07959 1800 1861.217425 2462.065186 1950 1860.911024 2448.25 1950 1860.911024
  2462.341309 2100 1860.46773 2448.561523 2100 1860.46773 2462.788086 2250 1859.902005 2449.020996 2250 1859.902005 2463.392578 2400
  1859.239952 2449.562012 2400 1859.239952 2464.082764 /

ZCORN                                   
  2464.84 2463.98 2453.97 2*2452.43 2*2453.06 2*2453.86 2*2454.76 2*2455.25 2*2454.83 2*2453.38 2*2451.31 2*2449.31 2*2448.01
  2*2447.67 2*2448.04 2*2448.59 2*2448.95 2449.12 2462.9 2462.04 2450.04 2*2448.49 2*2447.36 2*2446.98 2*2447.47 2*2448.24 2447.99
  2447.99 2*2446.51 2*2444.91 2*2444 2*2443.96 2*2444.68 2*2445.9 2*2446.8 2*2447.16 2447.18 2462.9 2462.04 2450.04 2*2448.49
  2*2447.36 2*2446.98 2*2447.47 2*2448.24 2*2447.99 2*2446.51 2*2444.91 2*2444 2*2443.96 2*2444.68 2*2445.9 2*2446.8 2*2447.16
  2447.18 2460.87 2459.89 2447.89 2*2444.27 2*2441.97 2*2440.49 2*2440.21 2*2440.8 2*2440.65 2*2439.34 2*2438.62 2*2439.05 2440.39
  2440.39 2*2442.02 2*2443.58 2*2444.62 2*2445.2 2445.43 2460.87 2459.89 2447.89 2*2444.27 2*2441.97 2*2440.49 2*2440.21 2440.8
  2440.8 2*2440.65 2*2439.34 2*2438.62 2*2439.05 2*2440.39 2*2442.02 2*2443.58 2*2444.62 2*2445.2 2445.43 2459.19 2458.09 2446.09
  2*2440.71 2*2437.16 2*2434.13 2*2432.17 2*2431.42 2*2430.76 2*2430.04 2*2430.62 2*2432.66 2*2435.72 2*2438.72 2*2440.91 2442.46
  2442.46 2*2443.45 2443.97 2459.19 2458.09 2446.09 2*2440.71 2*2437.16 2*2434.13 2*2432.17 2*2431.42 2*2430.76 2*2430.04 2430.62
  2430.62 2*2432.66 2*2435.72 2*2438.72 2*2440.91 2*2442.46 2*2443.45 2443.97 2458.06 2456.77 2444.77 2*2438.42 2*2433.59 2428.66
  2428.66 2*2424.1 2*2420.73 2*2418.91 2*2419.11 2*2421.44 2*2425.29 2*2430.01 2*2434.51 2*2438.02 2*2440.51 2*2442.1 2442.98
  2458.06 2456.77 2444.77 2*2438.42 2*2433.59 2*2428.66 2*2424.1 2*2420.73 2*2418.91 2*2419.11 2*2421.44 2*2425.29 2*2430.01
  2*2434.51 2*2438.02 2*2440.51 2*2442.1 2442.98 2457.17 2455.66 2443.66 2*2437.32 2*2431.55 2*2424.83 2*2417.7 2*2411.75 2408.86
  2408.86 2*2409.92 2*2413.88 2*2419.3 2*2425.4 2*2431.23 2*2436 2*2439.39 2*2441.51 2442.65 2457.17 2455.66 2443.66 2*2437.32
  2*2431.55 2*2424.83 2*2417.7 2*2411.75 2*2408.86 2*2409.92 2*2413.88 2*2419.3 2*2425.4 2*2431.23 2*2436 2*2439.39 2*2441.51
  2442.65 2455.73 2454.39 2442.39 2*2436.12 2*2430.26 2*2422.66 2*2414.19 2*2407.13 2*2404.2 2*2406.26 2*2411.07 2*2416.98 2423.61
  2423.61 2*2430.16 2*2435.63 2*2439.47 2*2441.78 2443.09 2455.73 2454.39 2442.39 2*2436.12 2*2430.26 2*2422.66 2*2414.19 2407.13
  2407.13 2*2404.2 2*2406.26 2*2411.07 2*2416.98 2*2423.61 2*2430.16 2*2435.63 2*2439.47 2*2441.78 2443.09 2453.75 2453.08 2441.08
  2*2435.05 2*2429.65 2*2422.54 2*2414.6 2*2408.25 2*2406.15 2*2408.82 2*2413.12 2*2418.42 2*2424.77 2*2431.28 2*2436.7 2440.43
  2440.43 2*2442.68 2444.13 2453.75 2453.08 2441.08 2*2435.05 2*2429.65 2*2422.54 2*2414.6 2*2408.25 2*2406.15 2*2408.82 2413.12
  2413.12 2*2418.42 2*2424.77 2*2431.28 2*2436.7 2*2440.43 2*2442.68 2444.13 2452.37 2452.29 2440.29 2*2434.88 2*2430.49 2424.9
  2424.9 2*2418.72 2*2413.88 2*2412.4 2*2414.35 2*2417.8 2*2422.27 2*2427.79 2*2433.49 2*2438.2 2*2441.51 2*2443.66 2445.29 2452.37
  2452.29 2440.29 2*2434.88 2*2430.49 2*2424.9 2*2418.72 2*2413.88 2*2412.4 2*2414.35 2*2417.8 2*2422.27 2*2427.79 2*2433.49 2438.2
  2438.2 2*2441.51 2*2443.66 2445.29 2452.81 2452.63 2440.63 2*2436.37 2*2433.12 2*2429.23 2*2424.89 2*2421.47 2*2420.27 2421.4
  2421.4 2*2423.9 2*2427.35 2*2431.61 2*2435.96 2*2439.61 2*2442.37 2*2444.48 2446.28 2452.81 2452.63 2440.63 2*2436.37 2433.12
  2433.12 2*2429.23 2*2424.89 2*2421.47 2*2420.27 2*2421.4 2*2423.9 2*2427.35 2*2431.61 2*2435.96 2*2439.61 2*2442.37 2444.48
  2444.48 2446.28 2454.7 2454.18 2442.18 2*2439.27 2*2437.1 2*2434.59 2*2431.74 2*2429.45 2*2428.51 2*2429.05 2*2430.67 2432.98
  2432.98 2*2435.82 2*2438.76 2*2441.35 2*2443.52 2*2445.43 2447.16 2454.7 2454.18 2442.18 2*2439.27 2*2437.1 2*2434.59 2431.74
  2431.74 2*2429.45 2*2428.51 2*2429.05 2*2430.67 2*2432.98 2*2435.82 2*2438.76 2*2441.35 2*2443.52 2*2445.43 2447.16 2457.12
  2456.64 2444.64 2*2443.01 2*2441.74 2*2440.27 2*2438.43 2*2436.95 2*2436.22 2*2436.27 2*2437.08 2*2438.39 2*2440.08 2441.86
  2441.86 2*2443.55 2*2445.1 2*2446.58 2448 2457.12 2456.64 2444.64 2*2443.01 2*2441.74 2*2440.27 2*2438.43 2*2436.95 2436.22
  2436.22 2*2436.27 2*2437.08 2*2438.39 2*2440.08 2*2441.86 2*2443.55 2*2445.1 2*2446.58 2448 2459.92 2459.6 2447.6 2*2447.16
  2*2446.63 2*2445.72 2*2444.54 2*2443.63 2*2442.94 2*2442.39 2*2442.47 2*2443.19 2*2444.1 2*2444.99 2*2445.88 2*2446.8 2447.79
  2447.79 2448.83 2459.92 2459.6 2447.6 2*2447.16 2*2446.63 2*2445.72 2*2444.54 2*2443.63 2*2442.94 2*2442.39 2*2442.47 2443.19
  2443.19 2*2444.1 2*2444.99 2*2445.88 2*2446.8 2*2447.79 2448.83 2462.61 2462.28 2451.64 2*2451.21 2*2451.34 2*2451.16 2450.75
  2450.75 2*2450.19 2*2449.46 2*2448.68 2*2448.14 2*2447.96 2*2447.99 2*2448.08 2*2448.25 2*2448.56 2*2449.02 2449.56 2465.9 2465.02
  2455.01 2*2453.45 2*2454.05 2*2454.84 2*2455.72 2*2456.2 2*2455.78 2*2454.34 2*2452.28 2*2450.31 2*2449.06 2*2448.77 2449.22
  2449.22 2*2449.84 2*2450.27 2450.51 2464.01 2463.14 2451.14 2*2449.56 2*2448.41 2*2448.01 2*2448.49 2*2449.24 2*2449 2447.52
  2447.52 2*2445.95 4*2445.07 2*2445.84 2*2447.12 2*2448.08 2*2448.51 2448.59 2464.01 2463.14 2451.14 2*2449.56 2*2448.41 2448.01
  2448.01 2*2448.49 2*2449.24 2*2449 2*2447.52 2*2445.95 4*2445.07 2*2445.84 2*2447.12 2*2448.08 2*2448.51 2448.59 2462.04 2461.05
  2449.05 2*2445.4 2*2443.08 2*2441.59 2*2441.29 2*2441.87 2*2441.7 2*2440.41 2*2439.72 2*2440.18 2*2441.56 2*2443.24 2444.84
  2444.84 2*2445.94 2*2446.57 2446.85 2462.04 2461.05 2449.05 2*2445.4 2*2443.08 2*2441.59 2*2441.29 2*2441.87 2*2441.7 2440.41
  2440.41 2*2439.72 2*2440.18 2*2441.56 2*2443.24 2*2444.84 2*2445.94 2*2446.57 2446.85 2460.42 2459.31 2447.31 2*2441.9 2438.33
  2438.33 2*2435.28 2*2433.31 2*2432.54 2*2431.87 2*2431.17 2*2431.78 2*2433.86 2*2436.96 2*2439.99 2*2442.22 2*2443.8 2444.84
  2444.84 2445.41 2460.42 2459.31 2447.31 2*2441.9 2*2438.33 2*2435.28 2*2433.31 2*2432.54 2*2431.87 2*2431.17 2*2431.78 2433.86
  2433.86 2*2436.96 2*2439.99 2*2442.22 2*2443.8 2*2444.84 2445.41 2459.34 2458.03 2446.03 2*2439.66 2*2434.81 2*2429.86 2425.29
  2425.29 2*2421.91 2*2420.09 2*2420.3 2*2422.67 2*2426.56 2*2431.31 2*2435.82 2*2439.36 2*2441.88 2*2443.51 2444.42 2459.34 2458.03
  2446.03 2*2439.66 2*2434.81 2*2429.86 2*2425.29 2*2421.91 2*2420.09 2*2420.3 2*2422.67 2*2426.56 2*2431.31 2*2435.82 2439.36
  2439.36 2*2441.88 2*2443.51 2444.42 2458.49 2456.97 2444.97 2*2438.6 2*2432.81 2*2426.08 2*2418.94 2*2412.99 2*2410.09 2411.17
  2411.17 2*2415.17 2*2420.63 2*2426.75 2*2432.59 2*2437.37 2*2440.78 2*2442.93 2444.1 2458.49 2456.97 2444.97 2*2438.6 2432.81
  2432.81 2*2426.08 2*2418.94 2*2412.99 2*2410.09 2*2411.17 2*2415.17 2*2420.63 2*2426.75 2*2432.59 2*2437.37 2*2440.78 2442.93
  2442.93 2444.1 2457.1 2455.74 2443.74 2*2437.44 2*2431.57 2*2423.96 2*2415.48 2*2408.4 2*2405.48 2*2407.55 2*2412.39 2418.33
  2418.33 2*2424.98 2*2431.54 2*2437.02 2*2440.87 2*2443.21 2444.55 2457.1 2455.74 2443.74 2*2437.44 2*2431.57 2*2423.96 2415.48
  2415.48 2*2408.4 2*2405.48 2*2407.55 2*2412.39 2*2418.33 2*2424.98 2*2431.54 2*2437.02 2*2440.87 2*2443.21 2444.55 2455.16 2454.47
  2442.47 2*2436.42 2*2431 2*2423.88 2*2415.92 2*2409.56 2*2407.45 2*2410.12 2*2414.43 2*2419.75 2*2426.13 2*2432.66 2*2438.09
  2*2441.84 2*2444.11 2445.58 2455.16 2454.47 2442.47 2*2436.42 2*2431 2*2423.88 2*2415.92 2*2409.56 2*2407.45 2*2410.12 2414.43
  2414.43 2*2419.75 2*2426.13 2*2432.66 2*2438.09 2*2441.84 2*2444.11 2445.58 2453.81 2453.73 2441.73 2*2436.29 2*2431.88 2426.28
  2426.28 2*2420.07 2*2415.21 2*2413.71 2*2415.64 2*2419.1 2*2423.58 2*2429.14 2*2434.86 2*2439.59 2*2442.93 2*2445.1 2446.75
  2453.81 2453.73 2441.73 2*2436.29 2*2431.88 2*2426.28 2*2420.07 2*2415.21 2*2413.71 2*2415.64 2*2419.1 2*2423.58 2*2429.14
  2*2434.86 2*2439.59 2*2442.93 2*2445.1 2446.75 2454.29 2454.09 2442.09 2*2437.81 2*2434.56 2*2430.64 2*2426.28 2*2422.83 2421.59
  2421.59 2*2422.69 2*2425.19 2*2428.66 2*2432.95 2*2437.33 2*2441.01 2*2443.79 2*2445.92 2447.74 2454.29 2454.09 2442.09 2437.81
  2437.81 2*2434.56 2*2430.64 2*2426.28 2*2422.83 2*2421.59 2*2422.69 2*2425.19 2*2428.66 2*2432.95 2*2437.33 2*2441.01 2443.79
  2443.79 2*2445.92 2447.74 2456.2 2455.68 2443.68 2*2440.75 2*2438.57 2*2436.03 2*2433.15 2*2430.83 2*2429.86 2*2430.37 2431.98
  2431.98 2*2434.3 2*2437.17 2*2440.14 2*2442.75 2*2444.94 2*2446.87 2448.62 2456.2 2455.68 2443.68 2*2440.75 2*2438.57 2436.03
  2436.03 2*2433.15 2*2430.83 2*2429.86 2*2430.37 2*2431.98 2*2434.3 2*2437.17 2*2440.14 2*2442.75 2*2444.94 2*2446.87 2448.62
  2458.65 2458.17 2446.17 2*2444.52 2*2443.24 2*2441.75 2*2439.87 2*2438.36 2*2437.6 2*2437.62 2*2438.42 2*2439.74 2*2441.44
  2*2443.25 2*2444.95 2*2446.52 2*2448.02 2449.46 2458.65 2458.17 2446.17 2*2444.52 2*2443.24 2*2441.75 2*2439.87 2*2438.36 2437.6
  2437.6 2*2437.62 2*2438.42 2*2439.74 2*2441.44 2*2443.25 2*2444.95 2*2446.52 2*2448.02 2449.46 2461.48 2461.16 2449.16 2448.7
  2448.7 2*2448.16 2*2447.23 2*2446.02 2*2445.08 2*2444.35 2*2443.78 2*2443.85 2*2444.56 2*2445.48 2*2446.39 2*2447.28 2448.22
  2448.22 2*2449.23 2450.28 2461.48 2461.16 2449.16 2*2448.7 2*2448.16 2*2447.23 2*2446.02 2*2445.08 2*2444.35 2*2443.78 2443.85
  2443.85 2*2444.56 2*2445.48 2*2446.39 2*2447.28 2*2448.22 2*2449.23 2450.28 2464.2 2463.87 2453.23 2*2452.79 2*2452.9 2452.7
  2452.7 2*2452.26 2*2451.67 2*2450.92 2*2450.11 2*2449.55 2*2449.36 2*2449.38 2*2449.48 2*2449.66 2*2449.98 2*2450.46 2451.01
  2465.9 2465.02 2455.01 2*2453.45 2*2454.05 2*2454.84 2*2455.72 2*2456.2 2*2455.78 2*2454.34 2*2452.28 2*2450.31 2*2449.06 2448.77
  2448.77 2*2449.22 2*2449.84 2*2450.27 2450.51 2464.01 2463.14 2451.14 2*2449.56 2*2448.41 2*2448.01 2*2448.49 2*2449.24 2*2449
  2*2447.52 2*2445.95 4*2445.07 2*2445.84 2*2447.12 2*2448.08 2*2448.51 2448.59 2464.01 2463.14 2451.14 2*2449.56 2*2448.41 2448.01
  2448.01 2*2448.49 2*2449.24 2*2449 2*2447.52 2*2445.95 4*2445.07 2*2445.84 2*2447.12 2*2448.08 2*2448.51 2448.59 2462.04 2461.05
  2449.05 2*2445.4 2*2443.08 2*2441.59 2*2441.29 2*2441.87 2*2441.7 2*2440.41 2*2439.72 2*2440.18 2*2441.56 2*2443.24 2444.84
  2444.84 2*2445.94 2*2446.57 2446.85 2462.04 2461.05 2449.05 2*2445.4 2*2443.08 2*2441.59 2*2441.29 2*2441.87 2*2441.7 2440.41
  2440.41 2*2439.72 2*2440.18 2*2441.56 2*2443.24 2*2444.84 2*2445.94 2*2446.57 2446.85 2460.42 2459.31 2447.31 2*2441.9 2438.33
  2438.33 2*2435.28 2*2433.31 2*2432.54 2*2431.87 2*2431.17 2*2431.78 2*2433.86 2*2436.96 2*2439.99 2*2442.22 2*2443.8 2444.84
  2444.84 2445.41 2460.42 2459.31 2447.31 2*2441.9 2*2438.33 2*2435.28 2*2433.31 2*2432.54 2*2431.87 2*2431.17 2*2431.78 2433.86
  2433.86 2*2436.96 2*2439.99 2*2442.22 2*2443.8 2*2444.84 2445.41 2459.34 2458.03 2446.03 2*2439.66 2*2434.81 2*2429.86 2425.29
  2425.29 2*2421.91 2*2420.09 2*2420.3 2*2422.67 2*2426.56 2*2431.31 2*2435.82 2*2439.36 2*2441.88 2*2443.51 2444.42 2459.34 2458.03
  2446.03 2*2439.66 2*2434.81 2*2429.86 2*2425.29 2*2421.91 2*2420.09 2*2420.3 2*2422.67 2*2426.56 2*2431.31 2*2435.82 2439.36
  2439.36 2*2441.88 2*2443.51 2444.42 2458.49 2456.97 2444.97 2*2438.6 2*2432.81 2*2426.08 2*2418.94 2*2412.99 2*2410.09 2411.17
  2411.17 2*2415.17 2*2420.63 2*2426.75 2*2432.59 2*2437.37 2*2440.78 2*2442.93 2444.1 2458.49 2456.97 2444.97 2*2438.6 2432.81
  2432.81 2*2426.08 2*2418.94 2*2412.99 2*2410.09 2*2411.17 2*2415.17 2*2420.63 2*2426.75 2*2432.59 2*2437.37 2*2440.78 2442.93
  2442.93 2444.1 2457.1 2455.74 2443.74 2*2437.44 2*2431.57 2*2423.96 2*2415.48 2*2408.4 2*2405.48 2*2407.55 2*2412.39 2418.33
  2418.33 2*2424.98 2*2431.54 2*2437.02 2*2440.87 2*2443.21 2444.55 2457.1 2455.74 2443.74 2*2437.44 2*2431.57 2*2423.96 2415.48
  2415.48 2*2408.4 2*2405.48 2*2407.55 2*2412.39 2*2418.33 2*2424.98 2*2431.54 2*2437.02 2*2440.87 2*2443.21 2444.55 2455.16 2454.47
  2442.47 2*2436.42 2*2431 2*2423.88 2*2415.92 2*2409.56 2*2407.45 2*2410.12 2*2414.43 2*2419.75 2*2426.13 2*2432.66 2*2438.09
  2*2441.84 2*2444.11 2445.58 2455.16 2454.47 2442.47 2*2436.42 2*2431 2*2423.88 2*2415.92 2*2409.56 2*2407.45 2*2410.12 2414.43
  2414.43 2*2419.75 2*2426.13 2*2432.66 2*2438.09 2*2441.84 2*2444.11 2445.58 2453.81 2453.73 2441.73 2*2436.29 2*2431.88 2426.28
  2426.28 2*2420.07 2*2415.21 2*2413.71 2*2415.64 2*2419.1 2*2423.58 2*2429.14 2*2434.86 2*2439.59 2*2442.93 2*2445.1 2446.75
  2453.81 2453.73 2441.73 2*2436.29 2*2431.88 2*2426.28 2*2420.07 2*2415.21 2*2413.71 2*2415.64 2*2419.1 2*2423.58 2*2429.14
  2*2434.86 2*2439.59 2*2442.93 2*2445.1 2446.75 2454.29 2454.09 2442.09 2*2437.81 2*2434.56 2*2430.64 2*2426.28 2*2422.83 2421.59
  2421.59 2*2422.69 2*2425.19 2*2428.66 2*2432.95 2*2437.33 2*2441.01 2*2443.79 2*2445.92 2447.74 2454.29 2454.09 2442.09 2437.81
  2437.81 2*2434.56 2*2430.64 2*2426.28 2*2422.83 2*2421.59 2*2422.69 2*2425.19 2*2428.66 2*2432.95 2*2437.33 2*2441.01 2443.79
  2443.79 2*2445.92 2447.74 2456.2 2455.68 2443.68 2*2440.75 2*2438.57 2*2436.03 2*2433.15 2*2430.83 2*2429.86 2*2430.37 2431.98
  2431.98 2*2434.3 2*2437.17 2*2440.14 2*2442.75 2*2444.94 2*2446.87 2448.62 2456.2 2455.68 2443.68 2*2440.75 2*2438.57 2436.03
  2436.03 2*2433.15 2*2430.83 2*2429.86 2*2430.37 2*2431.98 2*2434.3 2*2437.17 2*2440.14 2*2442.75 2*2444.94 2*2446.87 2448.62
  2458.65 2458.17 2446.17 2*2444.52 2*2443.24 2*2441.75 2*2439.87 2*2438.36 2*2437.6 2*2437.62 2*2438.42 2*2439.74 2*2441.44
  2*2443.25 2*2444.95 2*2446.52 2*2448.02 2449.46 2458.65 2458.17 2446.17 2*2444.52 2*2443.24 2*2441.75 2*2439.87 2*2438.36 2437.6
  2437.6 2*2437.62 2*2438.42 2*2439.74 2*2441.44 2*2443.25 2*2444.95 2*2446.52 2*2448.02 2449.46 2461.48 2461.16 2449.16 2448.7
  2448.7 2*2448.16 2*2447.23 2*2446.02 2*2445.08 2*2444.35 2*2443.78 2*2443.85 2*2444.56 2*2445.48 2*2446.39 2*2447.28 2448.22
  2448.22 2*2449.23 2450.28 2461.48 2461.16 2449.16 2*2448.7 2*2448.16 2*2447.23 2*2446.02 2*2445.08 2*2444.35 2*2443.78 2443.85
  2443.85 2*2444.56 2*2445.48 2*2446.39 2*2447.28 2*2448.22 2*2449.23 2450.28 2464.2 2463.87 2453.23 2*2452.79 2*2452.9 2452.7
  2452.7 2*2452.26 2*2451.67 2*2450.92 2*2450.11 2*2449.55 2*2449.36 2*2449.38 2*2449.48 2*2449.66 2*2449.98 2*2450.46 2451.01
  2466.95 2466.07 2456.06 2*2454.46 2*2455.05 2*2455.81 2*2456.68 2*2457.15 2*2456.72 2*2455.29 2*2453.25 2*2451.32 2*2450.11
  2*2449.88 2*2450.39 2*2451.08 2*2451.58 2451.9 2465.12 2464.24 2452.24 2*2450.63 2*2449.47 2*2449.04 2*2449.51 2*2450.25 2*2450
  2*2448.53 2*2446.98 2*2446.13 2*2446.18 2*2447 2*2448.34 2*2449.35 2*2449.85 2450 2465.12 2464.24 2452.24 2*2450.63 2449.47
  2449.47 2*2449.04 2*2449.51 2*2450.25 2*2450 2*2448.53 2*2446.98 2*2446.13 2*2446.18 2*2447 2*2448.34 2*2449.35 2*2449.85 2450
  2463.21 2462.21 2450.21 2*2446.53 2*2444.19 2*2442.68 2*2442.37 2*2442.93 2*2442.76 2*2441.47 2*2440.81 2*2441.31 2*2442.73
  2*2444.46 2*2446.1 2*2447.25 2*2447.94 2448.27 2463.21 2462.21 2450.21 2*2446.53 2*2444.19 2*2442.68 2*2442.37 2*2442.93 2442.76
  2442.76 2*2441.47 2*2440.81 2*2441.31 2*2442.73 2*2444.46 2*2446.1 2*2447.25 2*2447.94 2448.27 2461.64 2460.52 2448.52 2443.08
  2443.08 2*2439.49 2*2436.43 2*2434.44 2*2433.66 2*2432.99 2*2432.29 2*2432.94 2*2435.06 2*2438.19 2*2441.25 2*2443.52 2445.15
  2445.15 2*2446.23 2446.84 2461.64 2460.52 2448.52 2*2443.08 2*2439.49 2*2436.43 2*2434.44 2*2433.66 2*2432.99 2*2432.29 2432.94
  2432.94 2*2435.06 2*2438.19 2*2441.25 2*2443.52 2*2445.15 2*2446.23 2446.84 2460.62 2459.29 2447.29 2*2440.89 2*2436.03 2431.06
  2431.06 2*2426.48 2*2423.09 2*2421.26 2*2421.5 2*2423.9 2*2427.83 2*2432.61 2*2437.14 2*2440.7 2*2443.25 2*2444.91 2445.86 2460.62
  2459.29 2447.29 2*2440.89 2*2436.03 2*2431.06 2*2426.48 2*2423.09 2*2421.26 2*2421.5 2*2423.9 2*2427.83 2*2432.61 2*2437.14