-- Generated [
-- Format      : ECLIPSE keywords (grid geometry and properties) (ASCII)
-- Exported by : Petrel 2019.2 Schlumberger
-- User name   : shishaevgy
-- Date        : Friday, July 16 2021 20:23:54
-- Project     : channels_with_stats.pet
-- Grid        : 3D grid
-- Generated ]

PINCH                                   
  /

NOECHO                                  

MAPUNITS                                
  METRES /

MAPAXES                                 
  0 800 0 1800 1000 1800 /

GRIDUNIT                                
  METRES /

SPECGRID                                
  16 13 10 1 F /

COORDSYS                                
  1 10 /

COORD                                   
  0 -100 2465.543945 0 -100 2475.891602 150 -100 2465.651367 150 -100 2475.802002 300 -100 2465.840332 300 -100 2475.796631 450 -100
  2466.262695 450 -100 2476.032227 600 -100 2467.001465 600 -100 2476.599609 750 -100 2467.828613 750 -100 2477.283203 900 -100
  2468.194336 900 -100 2477.554688 1050 -100 2467.57959 1050 -100 2476.919434 1200 -100 2465.888672 1200 -100 2475.309814 1350 -100
  2463.568848 1350 -100 2473.197754 1500 -100 2461.371094 1500 -100 2471.34375 1650 -100 2459.923828 1650 -100 2470.367432 1800 -100
  2459.455078 1800 -100 2470.473145 1950 -100 2459.695313 1950 -100 2471.357178 2100 -100 2460.48877 2100 -100 2474.034424 2250 -100
  2461.611816 2250 -100 2474.780029 2400 -100 2461.445313 2400 -100 2475.354736 0 50 2463.521973 0 50 2474.469727 150 50 2462.524658
  150 50 2473.263916 300 50 2461.408691 300 50 2471.953125 450 50 2460.469238 450 50 2470.832275 600 50 2460.186523 600 50
  2470.380615 750 50 2460.68042 750 50 2470.724854 900 50 2461.326904 900 50 2471.260742 1050 50 2460.918457 1050 50 2470.818115
  1200 50 2459.223389 1200 50 2469.213867 1350 50 2457.35498 1350 50 2467.583984 1500 50 2456.177734 1500 50 2466.773926 1650 50
  2455.935303 1650 50 2466.981934 1800 50 2456.552734 1800 50 2468.109131 1950 50 2457.714844 1950 50 2469.848877 2100 50
  2458.508301 2100 50 2472.33252 2250 50 2459.671143 2250 50 2473.078125 2400 50 2459.656982 2400 50 2473.719482 0 200 2461.418213 0
  200 2472.961914 150 200 2459.334473 150 200 2470.661377 300 200 2457.048584 300 200 2468.179688 450 200 2454.982422 450 200
  2465.932861 600 200 2453.693848 600 200 2464.475586 750 200 2453.506836 750 200 2464.134766 900 200 2454.02832 900 200 2464.5354
  1050 200 2453.718018 1050 200 2464.181152 1200 200 2452.249268 1200 200 2462.820313 1350 200 2451.26001 1350 200 2462.106445 1500
  200 2451.386963 1500 200 2462.623535 1650 200 2452.453369 1650 200 2464.116699 1800 200 2453.904785 1800 200 2466.00708 1950 200
  2455.400146 1950 200 2467.985596 2100 200 2456.699219 2100 200 2470.501953 2250 200 2457.700928 2250 200 2471.349365 2400 200
  2457.896973 2400 200 2472.102539 0 350 2459.581055 0 350 2471.695068 150 350 2456.555664 150 350 2468.445068 300 350 2453.187988
  300 350 2464.880859 450 350 2449.891113 450 350 2461.406494 600 350 2447.179932 600 350 2458.53125 750 350 2445.572021 750 350
  2456.773438 900 350 2445.068115 900 350 2456.151367 1050 350 2444.387695 1050 350 2455.426514 1200 350 2443.330566 1200 350
  2454.49292 1350 350 2443.509277 1350 350 2455.000977 1500 350 2445.196777 1500 350 2457.107666 1650 350 2447.96582 1650 350
  2460.254395 1800 350 2450.746826 1800 350 2463.372803 1950 350 2452.789063 1950 350 2465.787598 2100 350 2454.882813 2100 350
  2468.81958 2250 350 2455.934814 2250 350 2469.790283 2400 350 2456.421143 2400 350 2470.743164 0 500 2458.294922 0 500 2470.940186
  150 500 2454.589355 150 500 2467.008545 300 500 2450.426758 300 500 2462.65332 450 500 2445.874512 450 500 2457.933105 600 500
  2441.316895 600 500 2453.227539 750 500 2437.243408 750 500 2449.025879 900 500 2434.267334 900 500 2445.957275 1050 500
  2432.495361 1050 500 2444.168457 1200 500 2432.38208 1200 500 2444.204346 1350 500 2434.307373 1350 500 2446.498535 1500 500
  2437.803955 1500 500 2450.42749 1650 500 2442.251221 1650 500 2455.162842 1800 500 2446.525391 1800 500 2459.651611 1950 500
  2449.865234 1950 500 2463.244629 2100 500 2453.444824 2100 500 2467.523193 2250 500 2454.544189 2250 500 2468.574707 2400 500
  2455.388916 2400 500 2469.805176 0 650 2457.391357 0 650 2470.525146 150 650 2453.520752 150 650 2466.433838 300 650 2449.195801
  300 650 2461.923828 450 650 2443.491455 450 650 2456.064697 600 650 2437.051758 600 650 2449.496338 750 650 2430.29248 750 650
  2442.629639 900 650 2424.623291 900 650 2436.878906 1050 650 2421.727539 1050 650 2433.976074 1200 650 2422.540283 1200 650
  2434.956543 1350 650 2426.223389 1350 650 2439.039551 1500 650 2431.429443 1500 650 2444.667969 1650 650 2437.369141 1650 650
  2450.803711 1800 650 2443.054932 1800 650 2456.609131 1950 650 2447.708496 1950 650 2461.412598 2100 650 2452.714844 2100 650
  2466.855957 2250 650 2453.884521 2250 650 2468.061523 2400 650 2455.011475 2400 650 2469.509033 0 800 2456.084229 0 800
  2469.664551 150 800 2452.358398 150 800 2465.72876 300 800 2447.970703 300 800 2461.165283 450 800 2442.074951 450 800 2455.122803
  600 800 2434.509277 600 800 2447.43335 750 800 2426.088623 750 800 2438.900635 900 800 2419.015381 900 800 2431.733643 1050 800
  2415.971436 1050 800 2428.661133 1200 800 2417.862305 1200 800 2430.674316 1350 800 2422.657959 1350 800 2435.805176 1500 800
  2428.593506 1500 800 2442.10376 1650 800 2435.219238 1650 800 2448.900146 1800 800 2441.737061 1800 800 2455.518555 1950 800
  2447.185547 1950 800 2461.077881 2100 800 2452.787109 2100 800 2466.890869 2250 800 2454.092529 2250 800 2468.370605 2400 800
  2455.403809 2400 800 2469.96167 0 950 2454.086426 0 950 2468.075439 150 950 2450.869873 150 950 2464.663818 300 950 2446.797852
  300 950 2460.427002 450 950 2441.259033 450 950 2454.741943 600 950 2433.956299 600 950 2447.295898 750 950 2425.809082 750 950
  2439.003418 900 950 2419.280762 900 950 2432.346924 1050 950 2417.086426 1050 950 2430.049805 1200 950 2419.848633 1200 950
  2432.788818 1350 950 2424.260498 1350 950 2437.368164 1500 950 2429.677002 1500 950 2443.055664 1650 950 2436.117676 1650 950
  2449.71875 1800 950 2442.692871 1800 950 2456.469971 1950 950 2448.171631 1950 950 2462.099609 2100 950 2453.375977 2100 950
  2467.491699 2250 950 2454.967529 2250 950 2469.296143 2400 950 2456.414063 2400 950 2471.006104 0 1100 2452.465332 0 1100
  2466.827881 150 1100 2449.933594 150 1100 2464.122314 300 1100 2446.390869 300 1100 2460.431641 450 1100 2441.824951 450 1100
  2455.720703 600 1100 2436.000732 600 1100 2449.723877 750 1100 2429.560303 750 1100 2443.085449 900 1100 2424.545898 900 1100
  2437.86792 1050 1100 2423.054199 1050 1100 2436.149902 1200 1100 2425.152344 1200 1100 2438.052246 1350 1100 2428.762695 1350 1100
  2441.689209 1500 1100 2433.358398 1500 1100 2446.503906 1650 1100 2439.029541 1650 1100 2452.470703 1800 1100 2444.862793 1800
  1100 2458.580322 1950 1100 2449.67749 1950 1100 2463.607422 2100 1100 2454.131836 2100 1100 2468.300537 2250 1100 2455.969238 2250
  1100 2470.321777 2400 1100 2457.587402 2400 1100 2472.194824 0 1250 2452.656006 0 1250 2467.358398 150 1250 2450.615234 150 1250
  2465.170898 300 1250 2447.675781 300 1250 2462.107178 450 1250 2444.29834 450 1250 2458.588867 600 1250 2440.223145 600 1250
  2454.303711 750 1250 2435.694092 750 1250 2449.511719 900 1250 2432.133301 900 1250 2445.665283 1050 1250 2430.926758 1050 1250
  2444.139648 1200 1250 2432.158203 1200 1250 2445.096924 1350 1250 2434.789551 1350 1250 2447.677734 1500 1250 2438.386963 1500
  1250 2451.465088 1650 1250 2442.812256 1650 1250 2456.214844 1800 1250 2447.316895 1800 1250 2461.036133 1950 1250 2451.084473
  1950 1250 2465.035156 2100 1250 2454.862305 2100 1250 2469.161621 2250 1250 2456.791748 2250 1250 2471.161621 2400 1250
  2458.588867 2400 1250 2473.199463 0 1400 2454.499756 0 1400 2469.508301 150 1400 2452.730957 150 1400 2467.621826 300 1400
  2450.533691 300 1400 2465.321777 450 1400 2448.256592 450 1400 2462.907227 600 1400 2445.62085 600 1400 2460.033691 750 1400
  2442.638428 750 1400 2456.739746 900 1400 2440.246094 900 1400 2454.018066 1050 1400 2439.282715 1050 1400 2452.710938 1200 1400
  2439.875732 1200 1400 2453.033447 1350 1400 2441.597168 1350 1400 2454.673584 1500 1400 2444.0354 1500 1400 2457.251709 1650 1400
  2447.022461 1650 1400 2460.51123 1800 1400 2450.099121 1800 1400 2463.858643 1950 1400 2452.786133 1950 1400 2466.762451 2100 1400
  2455.70166 2100 1400 2470.269043 2250 1400 2457.718262 2250 1400 2472.101318 2400 1400 2459.471924 2400 1400 2474.075195 0 1550
  2456.952881 0 1550 2472.245117 150 1550 2455.692627 150 1550 2470.890869 300 1550 2454.319092 300 1550 2469.42627 450 1550
  2452.970215 450 1550 2467.940918 600 1550 2451.42334 600 1550 2466.160156 750 1550 2449.484131 750 1550 2463.908447 900 1550
  2447.925293 900 1550 2462.013672 1050 1550 2447.175781 1050 1550 2460.936523 1200 1550 2447.266846 1200 1550 2460.772705 1350 1550
  2448.1521 1350 1550 2461.549561 1500 1550 2449.54248 1500 1550 2463.000732 1650 1550 2451.317383 1650 1550 2464.950439 1800 1550
  2453.200928 1800 1550 2467.032715 1950 1550 2454.969482 1950 1550 2468.986816 2100 1550 2456.824219 2100 1550 2471.623047 2250
  1550 2458.862305 2250 1550 2473.250732 2400 1550 2460.320557 2400 1550 2474.904785 0 1700 2459.796875 0 1700 2475.37207 150 1700
  2459.117676 150 1700 2474.614746 300 1700 2458.54541 300 1700 2473.958252 450 1700 2457.947021 450 1700 2473.224121 600 1700
  2456.970215 600 1700 2472.02417 750 1700 2455.728027 750 1700 2470.494385 900 1700 2454.746582 900 1700 2469.201172 1050 1700
  2454.040527 1050 1700 2468.185547 1200 1700 2453.530273 1200 1700 2467.412842 1350 1700 2453.661377 1350 1700 2467.384277 1500
  1700 2454.412109 1500 1700 2468.106445 1650 1700 2455.384033 1650 1700 2469.158447 1800 1700 2456.349609 1800 1700 2470.256592
  1950 1700 2457.302246 1950 1700 2471.359619 2100 1700 2458.160156 2100 1700 2473.136963 2250 1700 2460.074707 2250 1700
  2474.458252 2400 1700 2461.14502 2400 1700 2475.700195 0 1850 2462.625 0 1850 2478.503662 150 1850 2462.689941 150 1850
  2478.491211 300 1850 2462.773926 300 1850 2478.479736 450 1850 2462.752441 450 1850 2478.314941 600 1850 2462.49707 600 1850
  2477.85498 750 1850 2462.044922 750 1850 2477.146484 900 1850 2461.456543 900 1850 2476.273193 1050 1850 2460.726563 1050 1850
  2475.254883 1200 1850 2459.959473 1200 1850 2474.22583 1350 1850 2459.44043 1350 1850 2473.508057 1500 1850 2459.29248 1500 1850
  2473.24585 1650 1850 2459.355469 1650 1850 2473.285889 1800 1850 2459.461914 1800 1850 2473.443359 1950 1850 2459.541016 1950 1850
  2473.617188 2100 1850 2460.09668 2100 1850 2474.614258 2250 1850 2461.25 2250 1850 2475.626953 2400 1850 2462.006348 2400 1850
  2476.528809 /

ZCORN                                   
  2465.54 2*2465.65 2*2465.84 2*2466.26 2*2467 2*2467.83 2*2468.19 2*2467.58 2*2465.89 2*2463.57 2*2461.37 2*2459.92 2*2459.46
  2*2459.7 2460.49 2461.5 2*2461.61 2461.45 2463.52 2*2462.52 2*2461.41 2*2460.47 2*2460.19 2*2460.68 2*2461.33 2*2460.92 2459.22
  2459.22 2*2457.35 2*2456.18 2*2455.94 2*2456.55 2*2457.71 2458.51 2459.56 2*2459.67 2459.66 2463.52 2*2462.52 2*2461.41 2460.47
  2460.47 2*2460.19 2*2460.68 2*2461.33 2*2460.92 2*2459.22 2*2457.35 2*2456.18 2*2455.94 2*2456.55 2*2457.71 2458.51 2459.56
  2*2459.67 2459.66 2461.42 2*2459.33 2*2457.05 2*2454.98 2*2453.69 2*2453.51 2*2454.03 2*2453.72 2*2452.25 2*2451.26 2451.39
  2451.39 2*2452.45 2*2453.9 2*2455.4 2456.7 2457.41 2*2457.7 2457.9 2461.42 2*2459.33 2*2457.05 2*2454.98 2*2453.69 2*2453.51
  2*2454.03 2*2453.72 2*2452.25 2*2451.26 2*2451.39 2*2452.45 2*2453.9 2*2455.4 2456.7 2457.41 2*2457.7 2457.9 2459.58 2456.56
  2456.56 2*2453.19 2*2449.89 2*2447.18 2*2445.57 2*2445.07 2*2444.39 2*2443.33 2*2443.51 2*2445.2 2*2447.97 2*2450.75 2452.79
  2452.79 2454.88 2455.43 2*2455.93 2456.42 2459.58 2*2456.56 2*2453.19 2*2449.89 2*2447.18 2*2445.57 2*2445.07 2*2444.39 2443.33
  2443.33 2*2443.51 2*2445.2 2*2447.97 2*2450.75 2*2452.79 2454.88 2455.43 2*2455.93 2456.42 2458.29 2*2454.59 2*2450.43 2445.87
  2445.87 2*2441.32 2*2437.24 2*2434.27 2*2432.5 2*2432.38 2*2434.31 2*2437.8 2*2442.25 2*2446.53 2*2449.87 2453.44 2453.88 2454.54
  2454.54 2455.39 2458.29 2*2454.59 2*2450.43 2*2445.87 2*2441.32 2*2437.24 2*2434.27 2*2432.5 2*2432.38 2*2434.31 2*2437.8 2442.25
  2442.25 2*2446.53 2*2449.87 2453.44 2453.88 2*2454.54 2455.39 2457.39 2*2453.52 2*2449.2 2*2443.49 2*2437.05 2*2430.29 2424.62
  2424.62 2*2421.73 2*2422.54 2*2426.22 2*2431.43 2*2437.37 2*2443.05 2*2447.71 2452.71 2453.01 2*2453.88 2455.01 2457.39 2453.52
  2453.52 2*2449.2 2*2443.49 2*2437.05 2*2430.29 2*2424.62 2*2421.73 2*2422.54 2*2426.22 2*2431.43 2*2437.37 2*2443.05 2447.71
  2447.71 2452.71 2453.01 2*2453.88 2455.01 2456.08 2*2452.36 2*2447.97 2*2442.07 2*2434.51 2*2426.09 2*2419.02 2*2415.97 2417.86
  2417.86 2*2422.66 2*2428.59 2*2435.22 2*2441.74 2*2447.19 2452.79 2452.9 2*2454.09 2455.4 2456.08 2*2452.36 2*2447.97 2442.07
  2442.07 2*2434.51 2*2426.09 2*2419.02 2*2415.97 2*2417.86 2*2422.66 2*2428.59 2*2435.22 2*2441.74 2*2447.19 2452.79 2452.9 2454.09
  2454.09 2455.4 2454.09 2*2450.87 2*2446.8 2*2441.26 2*2433.96 2*2425.81 2*2419.28 2*2417.09 2*2419.85 2*2424.26 2*2429.68 2436.12
  2436.12 2*2442.69 2*2448.17 2453.4 2453.38 2*2454.97 2456.41 2454.09 2*2450.87 2*2446.8 2*2441.26 2*2433.96 2*2425.81 2419.28
  2419.28 2*2417.09 2*2419.85 2*2424.26 2*2429.68 2*2436.12 2*2442.69 2*2448.17 2453.4 2453.38 2*2454.97 2456.41 2452.47 2449.93
  2449.93 2*2446.39 2*2441.82 2*2436 2*2429.56 2*2424.55 2*2423.05 2*2425.15 2*2428.76 2*2433.36 2*2439.03 2*2444.86 2*2449.68
  2454.15 2454.13 2*2455.97 2457.59 2452.47 2*2449.93 2*2446.39 2*2441.82 2*2436 2*2429.56 2*2424.55 2*2423.05 2*2425.15 2428.76
  2428.76 2*2433.36 2*2439.03 2*2444.86 2*2449.68 2454.15 2454.13 2*2455.97 2457.59 2452.66 2*2450.62 2*2447.68 2*2444.3 2440.22
  2440.22 2*2435.69 2*2432.13 2*2430.93 2*2432.16 2*2434.79 2*2438.39 2*2442.81 2*2447.32 2*2451.08 2454.86 2455.01 2*2456.79
  2458.59 2452.66 2*2450.62 2*2447.68 2*2444.3 2*2440.22 2*2435.69 2*2432.13 2*2430.93 2*2432.16 2*2434.79 2*2438.39 2*2442.81
  2*2447.32 2*2451.08 2454.86 2455.01 2*2456.79 2458.59 2454.5 2*2452.73 2*2450.53 2*2448.26 2*2445.62 2*2442.64 2*2440.25 2439.28
  2439.28 2*2439.88 2*2441.6 2*2444.04 2*2447.02 2*2450.1 2*2452.79 2455.7 2456.1 2*2457.72 2459.47 2454.5 2*2452.73 2*2450.53
  2*2448.26 2*2445.62 2*2442.64 2*2440.25 2*2439.28 2*2439.88 2*2441.6 2*2444.04 2*2447.02 2*2450.1 2*2452.79 2455.7 2456.1 2457.72
  2457.72 2459.47 2456.95 2*2455.69 2*2454.32 2*2452.97 2*2451.42 2*2449.48 2*2447.93 2*2447.18 2*2447.27 2*2448.15 2*2449.54
  2*2451.32 2*2453.2 2*2454.97 2456.82 2457.43 2*2458.86 2460.32 2456.95 2*2455.69 2*2454.32 2*2452.97 2*2451.42 2*2449.48 2447.93
  2447.93 2*2447.18 2*2447.27 2*2448.15 2*2449.54 2*2451.32 2*2453.2 2*2454.97 2456.82 2457.43 2*2458.86 2460.32 2459.8 2459.12
  2459.12 2*2458.55 2*2457.95 2*2456.97 2*2455.73 2*2454.75 2*2454.04 2*2453.53 2*2453.66 2*2454.41 2*2455.38 2*2456.35 2457.3
  2457.3 2458.16 2458.92 2*2460.07 2461.15 2459.8 2*2459.12 2*2458.55 2*2457.95 2*2456.97 2*2455.73 2*2454.75 2*2454.04 2453.53
  2453.53 2*2453.66 2*2454.41 2*2455.38 2*2456.35 2*2457.3 2458.16 2458.92 2*2460.07 2461.15 2462.63 2*2462.69 2*2462.77 2462.75
  2462.75 2*2462.5 2*2462.04 2*2461.46 2*2460.73 2*2459.96 2*2459.44 2*2459.29 2*2459.36 2*2459.46 2*2459.54 2460.4 2460.1 2461.25
  2461.25 2462.01 2466.58 2*2466.67 2*2466.84 2*2467.24 2*2467.96 2*2468.77 2*2469.13 2*2468.51 2*2466.83 2*2464.53 2*2462.37
  2*2460.97 2*2460.56 2*2460.86 2461.71 2462.75 2*2462.93 2462.84 2464.62 2*2463.6 2*2462.46 2*2461.51 2*2461.21 2*2461.68 2462.32
  2462.32 2*2461.91 2*2460.22 2*2458.38 2*2457.24 2*2457.04 2*2457.71 2*2458.93 2459.78 2460.84 2*2461.01 2461.06 2464.62 2463.6
  2463.6 2*2462.46 2*2461.51 2*2461.21 2*2461.68 2*2462.32 2*2461.91 2*2460.22 2*2458.38 2*2457.24 2*2457.04 2*2457.71 2458.93
  2458.93 2459.78 2460.84 2*2461.01 2461.06 2462.57 2*2460.47 2*2458.16 2*2456.08 2*2454.77 2*2454.57 2*2455.08 2*2454.76 2453.31
  2453.31 2*2452.34 2*2452.51 2*2453.62 2*2455.11 2*2456.66 2458 2458.72 2*2459.07 2459.32 2462.57 2*2460.47 2*2458.16 2456.08
  2456.08 2*2454.77 2*2454.57 2*2455.08 2*2454.76 2*2453.31 2*2452.34 2*2452.51 2*2453.62 2*2455.11 2*2456.66 2458 2458.72 2459.07
  2459.07 2459.32 2460.79 2*2457.74 2*2454.36 2*2451.04 2*2448.31 2*2446.69 2*2446.18 2*2445.49 2*2444.45 2*2444.66 2*2446.39
  2*2449.19 2*2452.01 2*2454.09 2456.22 2456.77 2*2457.32 2457.85 2460.79 2*2457.74 2*2454.36 2*2451.04 2*2448.31 2*2446.69 2446.18
  2446.18 2*2445.49 2*2444.45 2*2444.66 2*2446.39 2*2449.19 2*2452.01 2*2454.09 2456.22 2456.77 2*2457.32 2457.85 2459.56 2455.83
  2455.83 2*2451.65 2*2447.08 2*2442.51 2*2438.42 2*2435.44 2*2433.66 2*2433.56 2*2435.53 2*2439.07 2*2443.54 2*2447.84 2451.2
  2451.2 2454.81 2455.25 2*2455.95 2456.83 2459.56 2*2455.83 2*2451.65 2*2447.08 2*2442.51 2*2438.42 2*2435.44 2*2433.66 2433.56
  2433.56 2*2435.53 2*2439.07 2*2443.54 2*2447.84 2*2451.2 2454.81 2455.25 2*2455.95 2456.83 2458.7 2*2454.81 2*2450.47 2444.75
  2444.75 2*2438.3 2*2431.53 2*2425.85 2*2422.95 2*2423.78 2*2427.5 2*2432.75 2*2438.71 2*2444.41 2*2449.08 2454.1 2454.4 2455.3
  2455.3 2456.46 2458.7 2*2454.81 2*2450.47 2*2444.75 2*2438.3 2*2431.53 2*2425.85 2*2422.95 2*2423.78 2*2427.5 2*2432.75 2438.71
  2438.71 2*2444.41 2*2449.08 2454.1 2454.4 2*2455.3 2456.46 2457.44 2*2453.7 2*2449.29 2*2443.38 2*2435.8 2*2427.37 2*2420.29
  2*2417.24 2*2419.14 2*2423.97 2*2429.94 2*2436.59 2*2443.12 2*2448.57 2454.19 2454.3 2*2455.52 2456.86 2457.44 2*2453.7 2449.29
  2449.29 2*2443.38 2*2435.8 2*2427.37 2*2420.29 2*2417.24 2*2419.14 2*2423.97 2*2429.94 2*2436.59 2*2443.12 2*2448.57 2454.19
  2454.3 2*2455.52 2456.86 2455.49 2*2452.25 2*2448.16 2*2442.61 2*2435.29 2*2427.13 2*2420.59 2*2418.38 2*2421.14 2*2425.57
  2*2431.01 2*2437.48 2*2444.07 2*2449.56 2454.81 2454.78 2*2456.4 2457.87 2455.49 2*2452.25 2*2448.16 2*2442.61 2*2435.29 2427.13
  2427.13 2*2420.59 2*2418.38 2*2421.14 2*2425.57 2*2431.01 2*2437.48 2*2444.07 2*2449.56 2454.81 2454.78 2*2456.4 2457.87 2453.9
  2*2451.35 2*2447.79 2*2443.21 2*2437.37 2*2430.91 2*2425.88 2*2424.36 2*2426.44 2*2430.06 2*2434.67 2*2440.37 2*2446.23 2451.07
  2451.07 2455.57 2455.54 2*2457.4 2459.05 2453.9 2*2451.35 2*2447.79 2*2443.21 2*2437.37 2*2430.91 2*2425.88 2*2424.36 2426.44
  2426.44 2*2430.06 2*2434.67 2*2440.37 2*2446.23 2*2451.07 2455.57 2455.54 2*2457.4 2459.05 2454.13 2*2452.07 2*2449.12 2445.73
  2445.73 2*2441.63 2*2437.08 2*2433.49 2*2432.25 2*2433.45 2*2436.08 2*2439.69 2*2444.15 2*2448.69 2*2452.48 2456.28 2456.43
  2*2458.23 2460.05 2454.13 2*2452.07 2*2449.12 2*2445.73 2*2441.63 2*2437.08 2*2433.49 2*2432.25 2*2433.45 2*2436.08 2439.69
  2439.69 2*2444.15 2*2448.69 2*2452.48 2456.28 2456.43 2*2458.23 2460.05 2456 2*2454.22 2*2452.01 2*2449.72 2*2447.06 2444.05
  2444.05 2*2441.62 2*2440.63 2*2441.19 2*2442.9 2*2445.36 2*2448.37 2*2451.48 2*2454.18 2457.12 2457.52 2*2459.16 2460.93 2456
  2*2454.22 2*2452.01 2*2449.72 2*2447.06 2*2444.05 2*2441.62 2*2440.63 2*2441.19 2*2442.9 2*2445.36 2*2448.37 2*2451.48 2454.18
  2454.18 2457.12 2457.52 2*2459.16 2460.93 2458.48 2*2457.21 2*2455.83 2*2454.47 2*2452.9 2*2450.93 2*2449.33 2*2448.55 2448.62
  2448.62 2*2449.49 2*2450.89 2*2452.68 2*2454.58 2*2456.37 2458.24 2458.85 2*2460.3 2461.78 2458.48 2*2457.21 2*2455.83 2454.47
  2454.47 2*2452.9 2*2450.93 2*2449.33 2*2448.55 2*2448.62 2*2449.49 2*2450.89 2*2452.68 2*2454.58 2*2456.37 2458.24 2458.85 2460.3
  2460.3 2461.78 2461.35 2*2460.67 2*2460.09 2*2459.47 2*2458.48 2*2457.2 2*2456.19 2*2455.46 2*2454.92 2*2455.03 2*2455.78 2456.76
  2456.76 2*2457.74 2*2458.71 2459.58 2460.34 2*2461.51 2462.6 2461.35 2*2460.67 2*2460.09 2*2459.47 2*2458.48 2*2457.2 2456.19
  2456.19 2*2455.46 2*2454.92 2*2455.03 2*2455.78 2*2456.76 2*2457.74 2*2458.71 2459.58 2460.34 2*2461.51 2462.6 2464.21 2464.27
  2464.27 2*2464.34 2*2464.31 2*2464.03 2*2463.56 2*2462.94 2*2462.18 2*2461.39 2*2460.85 2*2460.69 2*2460.75 2*2460.86 2460.95
  2460.95 2461.82 2461.52 2*2462.69 2463.46 2466.58 2*2466.67 2*2466.84 2*2467.24 2*2467.96 2*2468.77 2*2469.13 2*2468.51 2466.83
  2466.83 2*2464.53 2*2462.37 2*2460.97 2*2460.56 2*2460.86 2461.71 2462.75 2*2462.93 2462.84 2464.62 2*2463.6 2*2462.46 2461.51
  2461.51 2*2461.21 2*2461.68 2*2462.32 2*2461.91 2*2460.22 2*2458.38 2*2457.24 2*2457.04 2*2457.71 2*2458.93 2459.78 2460.84
  2*2461.01 2461.06 2464.62 2*2463.6 2*2462.46 2*2461.51 2*2461.21 2*2461.68 2*2462.32 2*2461.91 2*2460.22 2*2458.38 2*2457.24
  2*2457.04 2*2457.71 2*2458.93 2459.78 2460.84 2*2461.01 2461.06 2462.57 2*2460.47 2*2458.16 2*2456.08 2*2454.77 2*2454.57 2455.08
  2455.08 2*2454.76 2*2453.31 2*2452.34 2*2452.51 2*2453.62 2*2455.11 2*2456.66 2458 2458.72 2*2459.07 2459.32 2462.57 2460.47
  2460.47 2*2458.16 2*2456.08 2*2454.77 2*2454.57 2*2455.08 2*2454.76 2*2453.31 2*2452.34 2*2452.51 2*2453.62 2*2455.11 2456.66
  2456.66 2458 2458.72 2*2459.07 2459.32 2460.79 2*2457.74 2*2454.36 2*2451.04 2*2448.31 2*2446.69 2*2446.18 2*2445.49 2444.45
  2444.45 2*2444.66 2*2446.39 2*2449.19 2*2452.01 2*2454.09 2456.22 2456.77 2*2457.32 2457.85 2460.79 2*2457.74 2*2454.36 2451.04
  2451.04 2*2448.31 2*2446.69 2*2446.18 2*2445.49 2*2444.45 2*2444.66 2*2446.39 2*2449.19 2*2452.01 2*2454.09 2456.22 2456.77
  2*2457.32 2457.85 2459.56 2*2455.83 2*2451.65 2*2447.08 2*2442.51 2*2438.42 2*2435.44 2*2433.66 2*2433.56 2*2435.53 2439.07
  2439.07 2*2443.54 2*2447.84 2*2451.2 2454.81 2455.25 2*2455.95 2456.83 2459.56 2*2455.83 2*2451.65 2*2447.08 2*2442.51 2438.42
  2438.42 2*2435.44 2*2433.66 2*2433.56 2*2435.53 2*2439.07 2*2443.54 2*2447.84 2*2451.2 2454.81 2455.25 2*2455.95 2456.83 2458.7
  2*2454.81 2*2450.47 2*2444.75 2*2438.3 2*2431.53 2*2425.85 2*2422.95 2*2423.78 2*2427.5 2*2432.75 2*2438.71 2*2444.41 2449.08
  2449.08 2454.1 2454.4 2*2455.3 2456.46 2458.7 2*2454.81 2*2450.47 2*2444.75 2*2438.3 2*2431.53 2*2425.85 2*2422.95 2*2423.78
  2*2427.5 2*2432.75 2*2438.71 2*2444.41 2*2449.08 2454.1 2454.4 2*2455.3 2456.46 2457.44 2*2453.7 2*2449.29 2*2443.38 2*2435.8
  2*2427.37 2*2420.29 2*2417.24 2*2419.14 2*2423.97 2*2429.94 2*2436.59 2*2443.12 2*2448.57 2454.19 2454.3 2*2455.52 2456.86 2457.44
  2*2453.7 2*2449.29 2*2443.38 2*2435.8 2*2427.37 2*2420.29 2*2417.24 2*2419.14 2*2423.97 2*2429.94 2*2436.59 2*2443.12 2448.57
  2448.57 2454.19 2454.3 2*2455.52 2456.86 2455.49 2*2452.25 2*2448.16 2*2442.61 2*2435.29 2*2427.13 2*2420.59 2*2418.38 2421.14
  2421.14 2*2425.57 2*2431.01 2*2437.48 2*2444.07 2*2449.56 2454.81 2454.78 2*2456.4 2457.87 2455.49 2*2452.25 2*2448.16 2442.61
  2442.61 2*2435.29 2*2427.13 2*2420.59 2*2418.38 2*2421.14 2*2425.57 2*2431.01 2*2437.48 2*2444.07 2*2449.56 2454.81 2454.78 2456.4
  2456.4 2457.87 2453.9 2*2451.35 2*2447.79 2*2443.21 2*2437.37 2*2430.91 2*2425.88 2*2424.36 2*2426.44 2*2430.06 2*2434.67 2440.37
  2440.37 2*2446.23 2*2451.07 2455.57 2455.54 2*2457.4 2459.05 2453.9 2*2451.35 2*2447.79 2*2443.21 2*2437.37 2*2430.91 2425.88
  2425.88 2*2424.36 2*2426.44 2*2430.06 2*2434.67 2*2440.37 2*2446.23 2*2451.07 2455.57 2455.54 2*2457.4 2459.05 2454.13 2452.07
  2452.07 2*2449.12 2*2445.73 2*2441.63 2*2437.08 2*2433.49 2*2432.25 2*2433.45 2*2436.08 2*2439.69 2*2444.15 2*2448.69 2452.48
  2452.48 2456.28 2456.43 2*2458.23 2460.05 2454.13 2*2452.07 2*2449.12 2*2445.73 2*2441.63 2*2437.08 2*2433.49 2*2432.25 2433.45
  2433.45 2*2436.08 2*2439.69 2*2444.15 2*2448.69 2*2452.48 2456.28 2456.43 2*2458.23 2460.05 2456 2*2454.22 2*2452.01 2449.72
  2449.72 2*2447.06 2*2444.05 2*2441.62 2*2440.63 2*2441.19 2*2442.9 2*2445.36 2*2448.37 2*2451.48 2*2454.18 2457.12 2457.52 2459.16
  2459.16 2460.93 2456 2*2454.22 2*2452.01 2*2449.72 2*2447.06 2*2444.05 2*2441.62 2*2440.63 2*2441.19 2*2442.9 2*2445.36 2448.37
  2448.37 2*2451.48 2*2454.18 2457.12 2457.52 2*2459.16 2460.93 2458.48 2*2457.21 2*2455.83 2*2454.47 2*2452.9 2*2450.93 2449.33
  2449.33 2*2448.55 2*2448.62 2*2449.49 2*2450.89 2*2452.68 2*2454.58 2*2456.37 2458.24 2458.85 2*2460.3 2461.78 2458.48 2457.21
  2457.21 2*2455.83 2*2454.47 2*2452.9 2*2450.93 2*2449.33 2*2448.55 2*2448.62 2*2449.49 2*2450.89 2*2452.68 2*2454.58 2456.37
  2456.37 2458.24 2458.85 2*2460.3 2461.78 2461.35 2*2460.67 2*2460.09 2*2459.47 2*2458.48 2*2457.2 2*2456.19 2*2455.46 2454.92
  2454.92 2*2455.03 2*2455.78 2*2456.76 2*2457.74 2*2458.71 2459.58 2460.34 2*2461.51 2462.6 2461.35 2*2460.67 2*2460.09 2459.47
  2459.47 2*2458.48 2*2457.2 2*2456.19 2*2455.46 2*2454.92 2*2455.03 2*2455.78 2*2456.76 2*2457.74 2*2458.71 2459.58 2460.34 2461.51
  2461.51 2462.6 2464.21 2*2464.27 2*2464.34 2*2464.31 2*2464.03 2*2463.56 2*2462.94 2*2462.18 2*2461.39 2*2460.85 2*2460.69
  2*2460.75 2*2460.86 2*2460.95 2461.82 2461.52 2*2462.69 2463.46 2467.61 2*2467.68 2*2467.83 2*2468.22 2*2468.92 2*2469.72 2470.07
  2470.07 2*2469.45 2*2467.77 2*2465.49 2*2463.37 2*2462.01 2*2461.66 2*2462.03 2462.94 2464.01 2*2464.25 2464.23 2465.71 2464.67
  2464.67 2*2463.52 2*2462.54 2*2462.23 2*2462.69 2*2463.31 2*2462.9 2*2461.22 2*2459.4 2*2458.3 2*2458.14 2*2458.86 2*2460.14
  2461.05 2462.11 2*2462.35 2462.47 2465.71 2*2464.67 2*2463.52 2*2462.54 2*2462.23 2*2462.69 2*2463.31 2*2462.9 2*2461.22 2459.4
  2459.4 2*2458.3 2*2458.14 2*2458.86 2*2460.14 2461.05 2462.11 2*2462.35 2462.47 2463.73 2*2461.6 2*2459.27 2*2457.17 2455.85
  2455.85 2*2455.63 2*2456.13 2*2455.81 2*2454.36 2*2453.43 2*2453.63 2*2454.79 2*2456.33 2*2457.92 2459.31 2460.03 2*2460.43
  2460.74 2463.73 2*2461.6 2*2459.27 2*2457.17 2*2455.85 2*2455.63 2*2456.13 2*2455.81 2*2454.36 2*2453.43 2*2453.63 2*2454.79
  2*2456.33 2*2457.92 2459.31 2460.03 2*2460.43 2460.74 2462 2*2458.93 2*2455.53 2*2452.19 2*2449.45 2*2447.81 2*2447.28 2446.6
  2446.6 2*2445.56 2*2445.81 2*2447.58 2*2450.42 2*2453.27 2*2455.39 2457.56 2458.11 2*2458.71 2459.29 2462 2*2458.93 2455.53
  2455.53 2*2452.19 2*2449.45 2*2447.81 2*2447.28 2*2446.6 2*2445.56 2*2445.81 2*2447.58 2*2450.42 2*2453.27 2*2455.39 2457.56
  2458.11 2*2458.71 2459.29 2460.82 2*2457.07 2*2452.87 2*2448.29 2*2443.7 2*2439.6 2*2436.61 2*2434.83 2*2434.75 2*2436.75 2440.33
  2440.33 2*2444.83 2*2449.15 2*2452.54 2456.17 2456.61 2*2457.35 2458.27 2460.82 2*2457.07 2*2452.87 2*2448.29 2*2443.7 2439.6
  2439.6 2*2436.61 2*2434.83 2*2434.75 2*2436.75 2*2440.33 2*2444.83 2*2449.15 2*2452.54 2456.17 2456.61 2*2457.35 2458.27 2460.02
  2*2456.1 2*2451.74 2*2446.01 2*2439.54 2*2432.76 2*2427.07 2*2424.18 2*2425.02 2*2428.79 2*2434.08 2*2440.06 2*2445.77 2450.45
  2450.45 2455.48 2455.78 2*2456.72 2457.91 2460.02 2*2456.1 2*2451.74 2*2446.01 2*2439.54 2*2432.76 2*2427.07 2*2424.18 2425.02
  2425.02 2*2428.79 2*2434.08 2*2440.06 2*2445.77 2*2450.45 2455.48 2455.78 2*2456.72 2457.91 2458.8 2*2455.03 2*2450.61 2444.68
  2444.68 2*2437.09 2*2428.65 2*2421.56 2*2418.51 2*2420.42 2*2425.29 2*2431.3 2*2437.96 2*2444.49 2*2449.96 2455.59 2455.7 2456.95
  2456.95 2458.32 2458.8 2*2455.03 2*2450.61 2*2444.68 2*2437.09 2*2428.65 2*2421.56 2*2418.51 2*2420.42 2*2425.29 2*2431.3 2437.96
  2437.96 2*2444.49 2*2449.96 2455.59 2455.7 2*2456.95 2458.32 2456.88 2*2453.63 2*2449.52 2*2443.96 2*2436.62 2*2428.45 2421.89
  2421.89 2*2419.68 2*2422.44 2*2426.88 2*2432.35 2*2438.84 2*2445.45 2*2450.96 2456.22 2456.19 2*2457.83 2459.33 2456.88 2453.63
  2453.63 2*2449.52 2*2443.96 2*2436.62 2*2428.45 2*2421.89 2*2419.68 2*2422.44 2*2426.88 2*2432.35 2*2438.84 2*2445.45 2450.96
  2450.96 2456.22 2456.19 2*2457.83 2459.33 2455.34 2*2452.77 2*2449.2 2*2444.6 2*2438.75 2*2432.27 2*2427.21 2*2425.67 2427.73
  2427.73 2*2431.35 2*2435.99 2*2441.72 2*2447.61 2*2452.46 2456.98 2456.95 2*2458.84 2460.51 2455.34 2*2452.77 2*2449.2 2444.6
  2444.6 2*2438.75 2*2432.27 2*2427.21 2*2425.67 2*2427.73 2*2431.35 2*2435.99 2*2441.72 2*2447.61 2*2452.46 2456.98 2456.95 2458.84
  2458.84 2460.51 2455.6 2*2453.53 2*2450.56 2*2447.16 2*2443.04 2*2438.46 2*2434.84 2*2433.57 2*2434.75 2*2437.37 2*2441 2445.49
  2445.49 2*2450.06 2*2453.87 2457.7 2457.84 2*2459.67 2461.51 2455.6 2*2453.53 2*2450.56 2*2447.16 2*2443.04 2*2438.46 2434.84
  2434.84 2*2433.57 2*2434.75 2*2437.37 2*2441 2*2445.49 2*2450.06 2*2453.87 2457.7 2457.84 2*2459.67 2461.51 2457.5 2*2455.71
  2*2453.49 2*2451.19 2*2448.5 2*2445.46 2*2443 2*2441.97 2*2442.51 2*2444.21 2*2446.68 2*2449.72 2*2452.85 2*2455.58 2458.54
  2458.93 2*2460.59 2462.39 2457.5 2*2455.71 2*2453.49 2*2451.19 2*2448.5 2*2445.46 2*2443 2*2441.97 2*2442.51 2*2444.21 2446.68
  2446.68 2*2449.72 2*2452.85 2*2455.58 2458.54 2458.93 2*2460.59 2462.39 2460.01 2*2458.73 2*2457.34 2*2455.96 2*2454.37 2452.37
  2452.37 2*2450.74 2*2449.93 2*2449.97 2*2450.83 2*2452.23 2*2454.04 2*2455.97 2*2457.77 2459.66 2460.27 2*2461.74 2463.24 2460.01
  2*2458.73 2*2457.34 2*2455.96 2*2454.37 2*2452.37 2*2450.74 2*2449.93 2*2449.97 2*2450.83 2*2452.23 2*2454.04 2*2455.97 2457.77
  2457.77 2459.66 2460.27 2*2461.74 2463.24 2462.91 2*2462.22 2*2461.63 2*2461 2*2459.98 2*2458.68 2*2457.64 2*2456.87 2456.31
  2456.31 2*2456.41 2*2457.15 2*2458.14 2*2459.13 2*2460.11 2461 2461.76 2*2462.95 2464.06 2462.91 2*2462.22 2*2461.63 2*2461
  2*2459.98 2*2458.68 2*2457.64 2*2456.87 2*2456.31 2*2456.41 2*2457.15 2*2458.14 2*2459.13 2*2460.11 2461 2461.76 2*2462.95
  2464.06 2465.8 2*2465.85 2*2465.92 2*2465.86 2*2465.57 2*2465.07 2*2464.42 2*2463.63 2*2462.81 2*2462.25 2*2462.08 2*2462.14
  2*2462.26 2*2462.36 2463.24 2462.94 2*2464.13 2464.91 2467.61 2*2467.68 2*2467.83 2*2468.22 2*2468.92 2*2469.72 2*2470.07 2469.45
  2469.45 2*2467.77 2*2465.49 2*2463.37 2*2462.01 2*2461.66 2*2462.03 2462.94 2464.01 2*2464.25 2464.23 2465.71 2*2464.67 2463.52
  2463.52 2*2462.54 2*2462.23 2*2462.69 2*2463.31 2*2462.9 2*2461.22 2*2459.4 2*2458.3 2*2458.14 2*2458.86 2*2460.14 2461.05 2462.11
  2*2462.35 2462.47 2465.71 2*2464.67 2*2463.52 2*2462.54 2*2462.23 2*2462.69 2*2463.31 2*2462.9 2*2461.22 2*2459.4 2*2458.3
  2*2458.14 2*2458.86 2*2460.14 2461.05 2462.11 2*2462.35 2462.47 2463.73 2*2461.6 2*2459.27 2*2457.17 2*2455.85 2*2455.63 2456.13